 ANIMSTEPS  12
 CRYSTAL 
 PRIMVEC 
 12.2904900000  0.0000000000  0.0000000000
 -6.1452450000 10.6438765650  0.0000000000
  0.0000000000  0.0000000000 20.0000000000
 PRIMCOORD   1
   45  1
In    6.1452450061   13.0093824537   11.5720182400    0.0000000000   -0.0011943758    0.0012385050
In    4.0970806789   16.5572861167   11.5725862800    0.0000111026    0.0000064101   -0.0006250993
In    2.0485882017   20.1050001802   11.5720182400   -0.0010343598    0.0005971879    0.0012385050
In   10.2911691739   13.0375270028   11.5489693000   -0.0004389382   -0.0002534211   -0.0000198628
In    8.1934092105   16.5572861167   11.5725862800   -0.0000111026    0.0000064101   -0.0006250993
In    6.1452449447   20.1048106873   11.5725862800    0.0000000000   -0.0000128201   -0.0006250993
In   14.2898108261   13.0375270028   11.5489693000    0.0004389382   -0.0002534211   -0.0000198628
In   12.2904900000   16.5004522543   11.5489693000    0.0000000000    0.0005068422   -0.0000198628
In   10.2419018106   20.1050001802   11.5720182400    0.0010343598    0.0005971879    0.0012385050
In    8.1936106393   11.8265010111   15.7996889600   -0.0001044302   -0.0000602928    0.0015020166
In    6.1452449939   15.3745053864   15.7994583600    0.0000000000   -0.0005220643    0.0015323031
In    4.0968447261   18.9224387245   15.7994583600   -0.0004521210    0.0002610322    0.0015323031
In   12.2904900615   11.8265469395   15.7993276600    0.0000000000   -0.0011210972   -0.0001287448
In   10.2420901808   15.3744796070   15.7993276600   -0.0009708987    0.0005605486   -0.0001287448
In    8.1936452617   18.9224387245   15.7994583600    0.0004521210    0.0002610322    0.0015323031
In   16.3873693729   11.8265010111   15.7996889600    0.0001044302   -0.0000602928    0.0015020166
In   14.3388899421   15.3744796070   15.7993276600    0.0009708987    0.0005605486   -0.0001287448
In   12.2904900061   18.9225042269   15.7996889600    0.0000000000    0.0001205856    0.0015020166
Se    4.0967086888   14.1919919346   10.2492520000    0.0027599811    0.0010799541   -0.0015824893
Se    2.0484898901   17.7396109590   10.2492520000    0.0023152582    0.0018502367   -0.0015824893
Se   10.2422712013   10.6439033662   10.2492520000   -0.0004447228   -0.0029301908   -0.0015824893
Se    8.1937813112   14.1919919346   10.2492520000   -0.0027599811    0.0010799541   -0.0015824893
Se    6.1452449385   17.7397943104   10.2490304200    0.0000000000    0.0000000000    0.0002496489
Se   14.3387087987   10.6439033662   10.2492520000    0.0004447228   -0.0029301908   -0.0015824893
Se   10.2420001099   17.7396109590   10.2492520000   -0.0023152582    0.0018502367   -0.0015824893
Se    8.1936366030   11.8265160084   13.2526446000    0.0025048436    0.0014461722   -0.0037777629
Se    6.1452449939   15.3744978719   13.2524115000    0.0000000000   -0.0000827509   -0.0009313823
Se    4.0968382182   18.9224424818   13.2524115000   -0.0000716644    0.0000413754   -0.0009313823
Se   12.2904900615   11.8264611498   13.2523319800    0.0000000000    0.0004227417    0.0038010277
Se   10.2420158848   15.3745225018   13.2523319800    0.0003661050   -0.0002113708    0.0038010277
Se    8.1936517695   18.9224424818   13.2524115000    0.0000716644    0.0000413754   -0.0009313823
Se   16.3873433970   11.8265160084   13.2526446000   -0.0025048436    0.0014461722   -0.0037777629
Se   14.3389642381   15.3745225018   13.2523319800   -0.0003661050   -0.0002113708    0.0038010277
Se   12.2904900000   18.9224742431   13.2526446000    0.0000000000   -0.0028923443   -0.0037777629
Se    6.1452450000   10.6438765650   17.0452927800    0.0000000000    0.0000000000   -0.0002557787
Se    4.0968269602   14.1919889543   17.0449963400    0.0010171067   -0.0007983765    0.0003868196
Se    2.0485464509   17.7397148645   17.0449963400   -0.0001828610    0.0012800285    0.0003868196
Se   10.2422094969   10.6438024304   17.0449963400   -0.0011999677   -0.0004816520    0.0003868196
Se    8.1936630521   14.1919889543   17.0449963400   -0.0010171067   -0.0007983765    0.0003868196
Se    6.1452449385   17.7397943104   17.0450076400    0.0000000000    0.0000000000   -0.0005309627
Se   14.3387705154   10.6438024304   17.0449963400    0.0011999677   -0.0004816520    0.0003868196
Se   12.2904900615   14.1918353845   17.0448288400    0.0000000000    0.0000000000   -0.0004046243
Se   10.2419435614   17.7397148645   17.0449963400    0.0001828610    0.0012800285    0.0003868196
Se    6.1452450000   10.6438765650   10.2493510400    0.0000000000    0.0000000000   -0.0005009268
As   12.2904900615   14.1918353845   10.0923607400    0.0000000000    0.0000000000    0.0008436608
 PRIMCOORD   2
   45  1
In    5.8111322197   13.1919564993   11.6654106434    0.0005325396   -0.0001324721    0.0000063822
In    3.7706657969   16.7422762105   11.6658269246    0.0006188254   -0.0001678354    0.0001590095
In    1.7227670939   20.2931130845   11.6480717936    0.0006411579   -0.0003701727   -0.0001017483
In    9.9436950533   13.1877231424   11.6313905638    0.0005395764   -0.0001317009   -0.0001843139
In    7.8760929643   16.7404887298   11.6457352725    0.0004971428   -0.0002870255    0.0000538406
In    5.8218313830   20.2949992203   11.6658269246    0.0004547624   -0.0004520008    0.0001590095
In   13.9450701911   13.2365631012   11.6041034576    0.0002404212   -0.0001388073   -0.0002950675
In   11.9866792673   16.7262756000   11.6313905638    0.0003838446   -0.0004014364   -0.0001843139
In    9.9167316559   20.3030633182   11.6654106434    0.0003809940   -0.0003949568    0.0000063822
In    8.1723091387   11.8499947260   15.8647365670   -0.0005588849    0.0001661013    0.0004258440
In    6.1135565574   15.3884363772   15.8848826675   -0.0006501159    0.0003675611   -0.0001625799
In    4.0582689781   18.9447104430   15.8878084860   -0.0006681934    0.0003857816   -0.0002941984
In   12.2588220742   11.8298422297   15.8989855228   -0.0006321103    0.0002173252   -0.0000049618
In   10.2067952985   15.3948571168   15.8906558943   -0.0007802670    0.0004504874   -0.0003131308
In    8.1657364576   18.9429162095   15.8848826675   -0.0006433752    0.0003792364   -0.0001625799
In   16.3482454021   11.8490892463   15.8646758642   -0.0004187394    0.0002417593    0.0004093848
In   14.3202021557   15.4002572433   15.8989855228   -0.0005042643    0.0004387610   -0.0000049618
In   12.2594931019   18.9292050102   15.8647365670   -0.0004232904    0.0004009579    0.0004258440
Se    3.7876527724   14.3857031447   10.3228905554    0.0004610327   -0.0002965454    0.0000368772
Se    1.7591842147   17.9398962720   10.3122818062    0.0004707916   -0.0003284405    0.0000802807
Se    9.9241661945   10.7943067740   10.3122818062    0.0005198336   -0.0002434973    0.0000802807
Se    7.8586140054   14.3736328878   10.3255074930    0.0004188103   -0.0002911913   -0.0000274173
Se    5.8288348365   17.9224737680   10.3456445047    0.0005107210   -0.0002948649    0.0001861217
Se   14.0164220116   10.8146980360   10.3228905554    0.0004873322   -0.0002509933    0.0000368772
Se    9.9171107772   17.9390538837   10.3255074930    0.0004615842   -0.0002171048   -0.0000274173
Se    7.9549535228   11.9798992999   13.3206637533    0.0002158024   -0.0000941582   -0.0004099412
Se    5.8988835169   15.5167379846   13.3462708968    0.0002855943   -0.0001970756    0.0001754609
Se    3.8385901612   19.0715420670   13.3498378012    0.0002277559   -0.0001314949    0.0002452711
Se   12.0393385071   11.9697186081   13.3673847238    0.0002311309   -0.0000300176   -0.0001356742
Se    9.9929994783   15.5182921911   13.3550739382    0.0003193064   -0.0001843516    0.0001525636
Se    7.9472874799   19.0646777230   13.3462708968    0.0003134696   -0.0001487941    0.0001754609
Se   16.1029109304   11.9907331765   13.3275114689    0.0000900300   -0.0000519788   -0.0003072190
Se   14.0893238627   15.5203973989   13.3673847238    0.0001415614   -0.0001851564   -0.0001356742
Se   12.0383146329   19.0524882083   13.3206637533    0.0001894446   -0.0001398112   -0.0004099412
Se    6.1088152934   10.6649092659   17.0878311453   -0.0005733710    0.0003310359   -0.0001660468
Se    4.0692598542   14.2031970606   17.1371735464   -0.0006968313    0.0002595023    0.0001039165
Se    2.0049362201   17.7753074630   17.1404023600   -0.0007591733    0.0002422306    0.0000248689
Se   10.1895802870   10.6637736988   17.1404023600   -0.0005893645    0.0005363481    0.0000248689
Se    8.1501820979   14.2048121639   17.1311240518   -0.0005100164    0.0002337406    0.0001806390
Se    6.1060648448   17.7624149481   17.1211764232   -0.0004666647    0.0002694290    0.0003108099
Se   14.3152804577   10.6620721913   17.1371735464   -0.0005731512    0.0004737225    0.0001039165
Se   12.2538490481   14.2129900834   17.1268317507   -0.0005798771    0.0003347922    0.0001986245
Se   10.2090978590   17.7709588707   17.1311240518   -0.0004574335    0.0003248168    0.0001806390
Se    5.8243355551   10.8291537194   10.3308440155    0.0003881524   -0.0002240999   -0.0000712369
As   11.9316138604   14.3990326557   10.2115162204    0.0004635058   -0.0002676052   -0.0005447495
 PRIMCOORD   3
   45  1
In    5.5406506903   13.3436897785   11.6675832769    0.0005215124   -0.0001969138   -0.0005408284
In    3.5322275271   16.8794208561   11.7003691815    0.0010426815   -0.0003136865    0.0003744563
In    1.4734093987   20.4370798170   11.6444779688    0.0008527810   -0.0004923533   -0.0005628159
In    9.5749689571   13.2307999537   11.6064687399   -0.0003723957   -0.0005250146   -0.0002142245
In    7.6379816329   16.8779623781   11.6396844119    0.0008832388   -0.0005099382   -0.0002634992
In    5.5838415010   20.4329204964   11.7003691815    0.0007930012   -0.0007461454    0.0003744563
In   13.7373029493   13.3565175742   11.6577773143    0.0006980890   -0.0004030419    0.0004664450
In   11.7650106063   17.0240633607   11.6064687399    0.0002684782    0.0005850114   -0.0002142245
In    9.6500860168   20.4614405544   11.6675832769    0.0004312886   -0.0003531861   -0.0005408284
In    8.4608801881   11.6855581385   15.8336760681   -0.0009013339    0.0005548904   -0.0004057518
In    6.3799836734   15.2377171457   15.8619789143   -0.0009444045    0.0005136693   -0.0005953063
In    4.3316821006   18.7868553031   15.8646581770   -0.0010615391    0.0006128799   -0.0003963955
In   12.5383410268   11.6619251736   15.8686389033   -0.0007829187    0.0003252337    0.0000497783
In   10.5111673959   15.2191278044   15.8003725586   -0.0007084080    0.0004089996   -0.0004356349
In    8.4294766929   18.7875431851   15.8619789143   -0.0009170529    0.0005610437   -0.0005953063
In   16.6274742724   11.6878763828   15.8446698613   -0.0011710916    0.0006761300   -0.0002111389
In   14.6053820561   15.2421452576   15.8686389033   -0.0006731200    0.0005154107    0.0000497783
In   12.5461848826   18.7615134338   15.8336760681   -0.0009312161    0.0005031328   -0.0004057518
Se    3.5405280925   14.5193372416   10.3446042861    0.0006774659   -0.0002806364    0.0001188596
Se    1.5721125111   18.0937254051   10.3038971683    0.0013641468   -0.0002905752   -0.0001971451
Se    9.6974104056   10.8794010552   10.3038971683    0.0009337189   -0.0010360981   -0.0001971451
Se    7.5980539711   14.4949500848   10.3252826560   -0.0002550977   -0.0000785930   -0.0013032084
Se    5.6028682237   18.0529356527   10.3646384609    0.0008391962   -0.0004845102    0.0007440556
Se   13.7771291489   10.9618972382   10.3446042861    0.0005817713   -0.0004463845    0.0001188596
Se    9.6817669855   18.1040468942   10.3252826560   -0.0000594853    0.0002602176   -0.0013032084
Se    7.7965068463   12.0331011829   13.3812234005   -0.0001813767   -0.0004920316    0.0001757755
Se    5.7954820862   15.5922498084   13.4008781805    0.0007463363   -0.0003752794    0.0003087131
Se    3.7130060156   19.1440481073   13.4132114729    0.0003105762   -0.0001793112    0.0007944101
Se   11.9079780113   12.0278125174   13.4322542387    0.0000908898   -0.0007230660    0.0005485171
Se    9.9121345781   15.5649795630   13.3281219799    0.0007380051   -0.0004260875   -0.0007718118
Se    7.8301916069   19.1164700769   13.4008781805    0.0006981696   -0.0004587065    0.0003087131
Se   15.9835146685   12.0596666335   13.3987476698    0.0007065536   -0.0004079289    0.0002769446
Se   13.9733328137   15.6051119707   13.4322542387    0.0006716384    0.0002828201    0.0005485171
Se   11.9130171125   19.1631061138   13.3812234005    0.0003354235    0.0004030926    0.0001757755
Se    6.3793695538   10.5087046908   17.0578577904   -0.0005865500    0.0003386448    0.0000764887
Se    4.3340460186   14.0503198347   17.1180488603   -0.0005745165    0.0005077402    0.0007417458
Se    2.2710547174   17.6210567720   17.1224439808   -0.0007953093    0.0004657156    0.0006802304
Se   10.4562245526   10.5104336653   17.1224439808   -0.0008009761    0.0004559002    0.0006802304
Se    8.4335909572   14.0648139282   17.0659639988   -0.0004260267    0.0004353046    0.0000910933
Se    6.3639029932   17.6135520167   17.1086021684   -0.0006227000    0.0003595160    0.0005830867
Se   14.5800691012   10.5091992593   17.1180488603   -0.0007269742    0.0002436758    0.0007417458
Se   12.5182810868   14.0603201747   17.0882464309   -0.0009290906    0.0005364107   -0.0000081111
Se   10.4720443172   17.5955187167   17.0659639988   -0.0005899982    0.0001512977    0.0000910933
Se    5.5888870292   10.9650899892   10.3428547070    0.0005517315   -0.0003185423   -0.0000478917
As   11.6527951740   14.5600086994   10.5283133976    0.0002748881   -0.0001587067    0.0000904587
 PRIMCOORD   4
   45  1
In    5.3050179165   13.4807197802   11.6910297694    0.0001173150   -0.0001727910    0.0000684383
In    3.2970942671   17.0209527737   11.7251136098    0.0002186573   -0.0000779124    0.0003096646
In    1.2331438189   20.5757972141   11.6603785307    0.0002200644   -0.0001270542   -0.0004867008
In    9.3247070733   13.3520010904   11.6087459004    0.0000034118   -0.0002599452   -0.0006413544
In    7.4165347444   17.0058147988   11.6858702644    0.0004156026   -0.0002399483    0.0000709607
In    5.3437046349   20.5657859140   11.7251136098    0.0001768028   -0.0001504065    0.0003096646
In   13.4861483672   13.5015217398   11.6776488537   -0.0000416670    0.0000240564    0.0006460120
In   11.5349164010   17.1801959413   11.6087459004    0.0002268250    0.0001270178   -0.0006413544
In    9.4135981673   20.5969895215   11.6910297694    0.0002082989   -0.0000152023    0.0000684383
In    8.7697162661   11.5079650020   15.7349648707   -0.0004753268    0.0002594594   -0.0008472772
In    6.6705383009   15.0687722380   15.7942314518   -0.0003257264    0.0001236859   -0.0001227833
In    4.6299453614   18.6146529292   15.7966067592   -0.0003239715    0.0001870450    0.0001044393
In   12.8328528827   11.4946298573   15.7932072875   -0.0002307198    0.0001270051    0.0003307372
In   10.8132882016   15.0446982759   15.7034112812   -0.0002463258    0.0001422163   -0.0009627654
In    8.7210645885   18.6203879504   15.7942314518   -0.0002699783    0.0002202444   -0.0001227833
In   16.9248805951   11.5161687624   15.7669619304   -0.0005109274    0.0002949840    0.0000379893
In   14.8975199778   15.0707381668   15.7932072875   -0.0002253496    0.0001363066    0.0003307372
In   12.8544030954   18.5828501234   15.7349648707   -0.0004623618    0.0002819154   -0.0008472772
Se    3.3155585469   14.6465321160   10.3789019833   -0.0001558224   -0.0000908550    0.0005140307
Se    1.3690897852   18.2270530420   10.3193384323    0.0006132937   -0.0002396737   -0.0004392189
Se    9.4804339221   10.9885600748   10.3193384323    0.0005142103   -0.0004112911   -0.0004392189
Se    7.3694212288   14.6255610974   10.3420700825   -0.0001882429   -0.0000678983   -0.0005735936
Se    5.3949116473   18.1729994381   10.4107807056    0.0002930337   -0.0001691831    0.0003759260
Se   13.5544903836   11.0931291425   10.3789019833    0.0000007716    0.0001803737    0.0005140307
Se    9.4543381594   18.2367431508   10.3420700825   -0.0000353198    0.0001969722   -0.0005735936
Se    7.6832170035   12.0969406811   13.4625433241    0.0002492831   -0.0002187486   -0.0004248919
Se    5.6791817291   15.6595826106   13.4972025865    0.0004046051   -0.0002377355   -0.0000166618
Se    3.5902447444   19.2149243603   13.5223465778    0.0000808342   -0.0000466696    0.0005414410
Se   11.7911465193   12.0933772126   13.5305139875   -0.0001343832   -0.0000725652    0.0007154578
Se    9.8139082355   15.6216905684   13.3929180587    0.0001969276   -0.0001136962   -0.0006601999
Se    7.7137295111   19.1835227395   13.4972025865    0.0004081875   -0.0002315306   -0.0000166618
Se   15.8754544914   12.1220552058   13.4970778952    0.0001684812   -0.0000972727    0.0001995836
Se   13.8581363760   15.6735086631   13.5305139875   -0.0000043483    0.0001526619    0.0007154578
Se   11.8010855638   19.2292982465   13.4625433241    0.0003140834   -0.0001065112   -0.0004248919
Se    6.6708234662   10.3404336960   16.9737496221   -0.0000768150    0.0000443492   -0.0002580042
Se    4.6121917127   13.8860665274   17.0510080672   -0.0000479388    0.0001569387    0.0005554903
Se    2.5569923972   17.4532474176   17.0595251098   -0.0003112365    0.0002800237    0.0005958389
Se   10.7445205564   10.3467090479   17.0595251098   -0.0003981259    0.0001295269    0.0005958389
Se    8.7231456292   13.8984127643   16.9805913491    0.0000576212    0.0000394189   -0.0002697293
Se    6.6485492327   17.4492114407   17.0531896126   -0.0000838299    0.0000483992    0.0004096527
Se   14.8613894849   10.3504446759   17.0510080672   -0.0001598823   -0.0000369531    0.0005554903
Se   12.7996695564   13.8978604660   17.0211833808   -0.0003964166    0.0002288712    0.0003756381
Se   10.7609292884   17.4279575969   16.9805913491   -0.0000053271   -0.0000696109   -0.0002697293
Se    5.3663744079   11.0935577110   10.3655137519   -0.0000295525    0.0000170621   -0.0002733533
As   11.4101851375   14.7000796693   10.5611246677    0.0002512850   -0.0001450794    0.0003710865
 PRIMCOORD   5
   45  1
In    5.0898995934   13.6199018975   11.7347245696   -0.0005116851   -0.0002790767    0.0000964707
In    3.0549822972   17.1528096492   11.7699607377    0.0000125192   -0.0000776987    0.0000428318
In    0.9822091994   20.7206743842   11.7261703403    0.0003250501   -0.0001876677   -0.0007967868
In    9.1010002455   13.4907103210   11.6425770971   -0.0006962538   -0.0002323800   -0.0002040570
In    7.2009945441   17.1302569914   11.7507572806    0.0000766728   -0.0000442671    0.0001408747
In    5.1084572461   20.7095325928   11.7699607377    0.0000735486    0.0000280074    0.0000428318
In   13.2829645288   13.6188299836   11.6649737230   -0.0007978023    0.0004606114    0.0007619987
In   11.3029372697   17.3045771219   11.6425770971   -0.0001468799    0.0007191635   -0.0002040570
In    9.1855037625   20.7136963851   11.7347245696   -0.0000141550    0.0005826707    0.0000964707
In    9.0823485029   11.3124951036   15.5706851416   -0.0000484226    0.0000267211   -0.0007932913
In    6.9247931128   14.9031556537   15.7148011661    0.0003643272   -0.0000269041   -0.0003899038
In    4.8854757206   18.4671224005   15.7706756982    0.0000002868   -0.0000001656   -0.0002552236
In   13.1113544872   11.3396568475   15.6743088369   -0.0003014732   -0.0002322053    0.0007259869
In   11.0431303932   14.9119988247   15.6395590350    0.0004628337   -0.0002672172   -0.0005573581
In    8.9916201637   18.4830051163   15.7148011661    0.0002054632   -0.0003020646   -0.0003899038
In   17.2421043191   11.3330195599   15.5773239882   -0.0009790455    0.0005652522    0.0010149036
In   15.1709813435   14.9070352071   15.6743088369    0.0000503591    0.0003771861    0.0007259869
In   13.1800011115   18.4098376135   15.5706851416   -0.0000473525    0.0000285746   -0.0007932913
Se    3.1150649611   14.7821817908   10.4110187369   -0.0009708592   -0.0003550299    0.0005043256
Se    1.1460121737   18.3686419208   10.3789391607    0.0004558251   -0.0003696842   -0.0009764692
Se    9.2462755504   11.1109565141   10.3789391607    0.0005480685   -0.0002099140   -0.0009764692
Se    7.1569657543   14.7644215758   10.3795592936   -0.0008558381    0.0000492510   -0.0002614610
Se    5.1669822793   18.3045945201   10.5047533544    0.0001446931   -0.0000835386    0.0002739821
Se   13.3367675142   11.1989368438   10.4110187369   -0.0001779647    0.0010183037    0.0005043256
Se    9.2278537203   18.3513047497   10.3795592936   -0.0004705716    0.0007165520   -0.0002614610
Se    7.5551050350   12.1700751268   13.5715908160    0.0010564387   -0.0002764289   -0.0008628177
Se    5.5750172928   15.7142659446   13.6175582650    0.0000715918   -0.0000922532    0.0001770880
Se    3.4690973293   19.2848688530   13.7024386260    0.0000354178   -0.0000204485    0.0002431377
Se   11.6604813221   12.1218286940   13.6349928040    0.0005814632   -0.0001484017    0.0007353686
Se    9.7240135894   15.6735912665   13.4939353837   -0.0005400549    0.0003118008   -0.0000101802
Se    7.6142901365   19.2463901205   13.6175582650    0.0001156896   -0.0000158737    0.0001770880
Se   15.7319582612   12.2049027929   13.5979352983    0.0017635175   -0.0010181673    0.0000235025
Se   13.7681640717   15.7724423025   13.6349928040    0.0004192512   -0.0004293611    0.0007353686
Se   11.6736932917   19.3036792429   13.5715908160    0.0007676138   -0.0007766883   -0.0008628177
Se    6.9717638490   10.1666856850   16.8477322814   -0.0003339876    0.0001928278   -0.0008988066
Se    4.8713913783   13.6864194976   16.9348289582    0.0004485273    0.0007453647    0.0007305813
Se    2.8287762540   17.2601780814   17.0090221643   -0.0000907833    0.0007485990    0.0005169797
Se   11.0476154407   10.2078719811   17.0090221643   -0.0006936974   -0.0002956788    0.0005169797
Se    8.9787939393   13.7103236118   16.8802207767    0.0004020379   -0.0002330896   -0.0003174311
Se    6.9319706587   17.2855780041   16.9842398220    0.0002260200   -0.0001304927    0.0001602101
Se   15.1638887173   10.2257946957   16.9348289582   -0.0004212411   -0.0007611184    0.0007305813
Se   13.0613626465   13.7467718900   16.9078450857    0.0000093922   -0.0000054226    0.0003192662
Se   11.0516434277   17.3006042422   16.8802207767    0.0004028804   -0.0002316302   -0.0003174311
Se    5.1346274744   11.2273568654   10.4156985977    0.0001489108   -0.0000859737   -0.0007111091
As   11.2008948358   14.8209134813   10.5984572914   -0.0010703319    0.0006179564    0.0008431861
 PRIMCOORD   6
   45  1
In    5.3679089615   13.6935949660   11.7551941072   -0.0002246594    0.0004657400    0.0000967705
In    3.0210969896   17.2529666972   11.7957071427    0.0000386505    0.0006212162    0.0001433206
In    0.7953542310   20.8285551506   11.7714017200   -0.0013344600    0.0007704508    0.0004352182
In    9.3273365950   13.5507791123   11.6694552458   -0.0005460830   -0.0000640425    0.0001756988
In    7.1553010670   17.1566381328   11.7701792657    0.0003658631   -0.0002112312   -0.0006483965
In    5.0047760444   20.6887996060   11.7957071427   -0.0005186637   -0.0003440804    0.0001433206
In   13.6673700487   13.3968933532   11.5270486608    0.0000721038   -0.0000416291    0.0004250792
In   11.3640843452   17.0785296978   11.6694552458   -0.0002175791    0.0005049430    0.0001756988
In    9.2606883710   20.4360866861   11.7551941072   -0.0005156723   -0.0000383092    0.0000967705
In    9.2866323900   11.2422750494   15.5340924906    0.0001392310    0.0004357496    0.0001713427
In    6.8855918113   14.8342226033   15.7032104957    0.0002220530    0.0005399243    0.0002554046
In    4.9649721904   18.4212250992   15.7881339973   -0.0011634429    0.0006717141    0.0003173484
In   13.1896941383   11.4548236848   15.5289804606   -0.0001255761    0.0000219012    0.0001827871
In   10.9715253015   14.9533400437   15.7256141597    0.0003109194   -0.0001795094   -0.0003000545
In    9.0317172858   18.5514209645   15.7032104957   -0.0003565617   -0.0004622657    0.0002554046
In   17.5023183776   11.1827849032   15.4655122503    0.0000260500   -0.0000150400   -0.0008015291
In   15.1104137623   14.7816076606   15.5289804606   -0.0000817550    0.0000978015    0.0001827871
In   13.3429554059   18.2680326048   15.5340924906   -0.0003077547   -0.0003384524    0.0001713427
Se    3.3137735230   14.8929565551   10.4672861618   -0.0008977022    0.0003822139    0.0003163749
Se    1.0252027283   18.4604122435   10.4771325476    0.0002531987    0.0003807170    0.0001311602
Se    9.1063953969   11.1696954014   10.4771325476   -0.0002031112   -0.0004096350    0.0001311602
Se    7.3574588611   14.8118696068   10.3810023209   -0.0003603283   -0.0001471458   -0.0007380389
Se    5.1326618647   18.3244094207   10.4740723397    0.0004254004   -0.0002456050   -0.0002902761
Se   13.3401880473   10.9714627991   10.4672861618   -0.0007798581    0.0005863260    0.0003163749
Se    9.2870090734   18.1539486105   10.3810023209   -0.0000527321    0.0003856263   -0.0007380389
Se    7.0587907541   12.2817325005   13.6198725481    0.0013595920   -0.0011308743   -0.0011595733
Se    5.5150753073   15.7749787071   13.6256264602    0.0009970623   -0.0011942916   -0.0004265821
Se    3.4495712043   19.2961422735   13.7224258402    0.0027853433   -0.0016081187   -0.0001766445
Se   11.1104617614   12.0619171685   13.7005430740    0.0001333305    0.0000127824    0.0007004694
Se    9.6980474661   15.6885828148   13.5163543863   -0.0006787204    0.0003918594    0.0005089162
Se    7.5317403370   19.2679450215   13.6256264602    0.0015328180   -0.0002663355   -0.0004265821
Se   14.9845638212   12.6364111741   13.7222593090    0.0004918044   -0.0002839434    0.0007090300
Se   13.5450391944   16.2787289774   13.7005430740    0.0000555954   -0.0001218588    0.0007004694
Se   11.3288380291   19.6776713316   13.6198725481    0.0016591619   -0.0006120040   -0.0011595733
Se    7.2540230333   10.0037232690   16.7865533187    0.0002032059   -0.0001173210   -0.0009835300
Se    4.8746336427   13.5310610376   16.8269675507    0.0003523415   -0.0000626665   -0.0004932954
Se    3.0095682352   17.0690726304   16.9960377816   -0.0001952169   -0.0000341910    0.0008567112
Se   11.3035136006   10.1468542686   16.9960377816   -0.0000679981    0.0001861583    0.0008567112
Se    8.9541527416   13.6263788413   16.8522945442   -0.0001308027    0.0004377371    0.0000365236
Se    7.0488735237   17.2180840965   16.9479951561   -0.0011791560    0.0006807860    0.0001744276
Se   15.3000542226   10.3006660424   16.8269675507    0.0002304416   -0.0002738034   -0.0004932954
Se   13.0036113322   13.7801146269   16.9121233594   -0.0002374930    0.0001371167    0.0001732167
Se   11.1120211326   17.3639165306   16.8522945442   -0.0004444928   -0.0001055900    0.0000365236
Se    4.9362350490   11.3418987856   10.4575358583   -0.0009798655    0.0005657256   -0.0001848265
As   11.5315736583   14.6299959741   10.6356034932   -0.0000544813    0.0000314548    0.0001438733
 PRIMCOORD   7
   45  1
In    5.4188822337   13.5301079785   11.6407360804   -0.0004021890   -0.0000967474   -0.0003296253
In    3.0622275191   17.0465651441   11.7831331966    0.0001656716   -0.0000972349    0.0001988392
In    1.2430745629   20.5700636964   11.5212395420    0.0001000960   -0.0000577904   -0.0005431218
In    9.4072747499   13.5608848751   11.7639824640   -0.0004352770   -0.0001907148    0.0003588870
In    7.0599091338   17.2117126910   11.8698819530    0.0000158393   -0.0000091448    0.0000000645
In    5.2040902975   20.7563802991   11.7831331966    0.0001670437   -0.0000948584    0.0001988392
In   13.6485464287   13.4077611752   11.5939108592    0.0002498218   -0.0001442347    0.0005440218
In   11.3953015753   17.0042483435   11.7639824640   -0.0000524747    0.0004723183    0.0003588870
In    9.4277588854   20.4736860418   11.6407360804   -0.0001173088    0.0003966796   -0.0003296253
In    9.2474231185   11.1003276040   15.5848580817   -0.0000852950   -0.0001375787   -0.0001387817
In    6.8817476683   14.6865322739   15.5788435619    0.0000261703   -0.0000947535   -0.0001649933
In    5.3345630089   18.2078417407   15.5521232878   -0.0001875133    0.0001082608    0.0000983922
In   13.1776378000   11.4529740918   15.5659088502   -0.0000162381   -0.0000331742   -0.0000877805
In   10.9013626787   14.9938484528   15.8671589149    0.0001242085   -0.0000717118   -0.0000653396
In    9.1576987915   18.6285952547   15.5788435619    0.0000951441    0.0000247126   -0.0001649933
In   17.3914478670   11.2467960223   15.5999013292    0.0000432051   -0.0000249445    0.0003699729
In   15.1059873877   14.7929735523   15.5659088502    0.0000206106    0.0000306497   -0.0000877805
In   13.4462808639   18.3729625527   15.5848580817    0.0000764991    0.0001426570   -0.0001387817
Se    3.3895396146   14.7129390205   10.4310530052   -0.0007273983   -0.0000313830   -0.0001658842
Se    1.0550475328   18.2181177235   10.3407963148    0.0003665281   -0.0001986410   -0.0003089622
Se    9.3311510087   11.2649963026   10.3407963148    0.0003552923   -0.0002181021   -0.0003089622
Se    7.3946742487   14.8580773785   10.5052901759   -0.0002597660    0.0001241626   -0.0001563695
Se    5.0298298946   18.3837794863   10.5329116418    0.0000039232   -0.0000022651    0.0002842290
Se   13.5339708512   10.9958562063   10.4310530052   -0.0003365207    0.0006456369   -0.0001658842
Se    9.2655996509   18.0986152535   10.5052901759   -0.0002374109    0.0001628827   -0.0001563695
Se    6.7855377855   12.6369892033   13.7379413008    0.0007232798    0.0003916604   -0.0007258874
Se    5.2176206330   16.1311598458   13.6885506452    0.0000189814   -0.0001187614    0.0000831951
Se    2.6238506125   19.7728722725   13.6757628607   -0.0002639717    0.0001524041    0.0003133173
Se   11.0530447511   12.0600991849   13.6466853699    0.0000908679   -0.0001903083    0.0004507020